s 2.000000000 _0_ AGT  --- 12 cbr 210 [0 0 0 0] ------- [0:0 1:0 32 0] [0] 0 0
s 2.100000000 _0_ AGT  --- 25 cbr 210 [0 0 0 0] ------- [0:0 1:0 32 0] [1] 0 0
r 2.131724509 _1_ AGT  --- 25 cbr 259 [13a 1 8 800] ------- [0:0 1:0 94 1] [1] 6 0
s 2.200000000 _0_ AGT  --- 26 cbr 210 [0 0 0 0] ------- [0:0 1:0 32 0] [2] 0 0
r 2.222523720 _1_ AGT  --- 26 cbr 259 [13a 1 8 800] ------- [0:0 1:0 94 1] [2] 6 0
s 2.300000000 _0_ AGT  --- 27 cbr 210 [0 0 0 0] ------- [0:0 1:0 32 0] [3] 0 0
r 2.323103720 _1_ AGT  --- 27 cbr 259 [13a 1 8 800] ------- [0:0 1:0 94 1] [3] 6 0
s 2.400000000 _0_ AGT  --- 28 cbr 210 [0 0 0 0] ------- [0:0 1:0 32 0] [4] 0 0
r 2.423203720 _1_ AGT  --- 28 cbr 259 [13a 1 8 800] ------- [0:0 1:0 94 1] [4] 6 0
s 2.500000000 _0_ AGT  --- 29 cbr 210 [0 0 0 0] ------- [0:0 1:0 32 0] [5] 0 0
r 2.522703720 _1_ AGT  --- 29 cbr 259 [13a 1 8 800] ------- [0:0 1:0 94 1] [5] 6 0
s 2.600000000 _0_ AGT  --- 30 cbr 210 [0 0 0 0] ------- [0:0 1:0 32 0] [6] 0 0
r 2.622843720 _1_ AGT  --- 30 cbr 259 [13a 1 8 800] ------- [0:0 1:0 94 1] [6] 6 0
s 2.700000000 _0_ AGT  --- 31 cbr 210 [0 0 0 0] ------- [0:0 1:0 32 0] [7] 0 0
r 2.724063720 _1_ AGT  --- 31 cbr 259 [13a 1 8 800] ------- [0:0 1:0 94 1] [7] 6 0
s 2.800000000 _0_ AGT  --- 32 cbr 210 [0 0 0 0] ------- [0:0 1:0 32 0] [8] 0 0
r 2.822483720 _1_ AGT  --- 32 cbr 259 [13a 1 8 800] ------- [0:0 1:0 94 1] [8] 6 0
s 2.900000000 _0_ AGT  --- 33 cbr 210 [0 0 0 0] ------- [0:0 1:0 32 0] [9] 0 0
r 2.922123720 _1_ AGT  --- 33 cbr 259 [13a 1 8 800] ------- [0:0 1:0 94 1] [9] 6 0
